<?xml version="1.0" encoding="UTF-8"?>

<!-- generated on 2023-04-03 20:40:38 by Eclipse SUMO GUI Version 1.16.0
<configuration xmlns:xsi="http://www.w3.org/2001/XMLSchema-instance" xsi:noNamespaceSchemaLocation="http://sumo.dlr.de/xsd/sumoConfiguration.xsd">

    <input>
        <net-file value="first.net.xml"/>
        <route-files value="first.rou.xml"/>
        <additional-files value="first.add.xml"/>
    </input>

    <output>
        <tripinfo-output value="tripinfo.xml"/>
    </output>

    <time>
        <begin value="0"/>
    </time>

    <report>
        <verbose value="true"/>
    </report>

    <traci_server>
        <remote-port value="60417"/>
    </traci_server>

    <gui_only>
        <gui-settings-file value="sotl.settings.xml"/>
    </gui_only>

</configuration>
-->

<detector xmlns:xsi="http://www.w3.org/2001/XMLSchema-instance" xsi:noNamespaceSchemaLocation="http://sumo.dlr.de/xsd/det_e1_file.xsd">
    <interval begin="0.00" end="526.00" id="det_1i" nVehContrib="45" flow="307.98" occupancy="4.83" speed="13.12" harmonicMeanSpeed="8.86" length="5.00" nVehEntered="45"/>
    <interval begin="0.00" end="526.00" id="det_2i" nVehContrib="0" flow="0.00" occupancy="0.00" speed="-1.00" harmonicMeanSpeed="-1.00" length="-1.00" nVehEntered="0"/>
    <interval begin="0.00" end="526.00" id="det_4i" nVehContrib="7" flow="47.91" occupancy="0.43" speed="15.52" harmonicMeanSpeed="15.36" length="5.00" nVehEntered="7"/>
</detector>
